##############################################################################
#                                                                            #
# Cu-Ti            # CuTi tet1                                     #  457547 #
#                                                                            #
##############################################################################
#                                                                            #
#                           Pearson's Crystal Data                           #
#      Crystal Structure Database for Inorganic Compounds (on DVD)           #
#                              Release 2024/25                               #
#      Editors: Pierre Villars, Karin Cenzual, and Vitaliy Dubenskyy         #
#                                                                            #
#   Copyright (c) ASM International & Material Phases Data System (MPDS),    #
# Switzerland & National Institute for Materials Science (NIMS), Japan, 2024 #
#                   All rights reserved. Version 2024.07                     #
#                                                                            #
#   This copy of Pearson's Crystal Data is licensed to:                      #
#   Hunter College - City University of New York                             #
#                                                                            #
##############################################################################

data_457547
_audit_creation_date                     2024-09-21
_audit_creation_method
;
Pearson's Crystal Data browser
;
#_database_code_PCD                      457547
_database_code_PDF                       04-003-6221

# Entry summary

_chemical_formula_structural             'Cu Ti'
_chemical_formula_sum                    'Cu Ti'
_chemical_name_mineral                   ?
_chemical_compound_source                ?
_chemical_name_structure_type            CuTi,tP4,129
_chemical_formula_weight                 111.4
_chemical_melting_point                  1257

# Bibliographic data

_publ_section_title
'Phase diagram of the system titanium-copper'                                 
_journal_coden_ASTM                      SPMCAV
_journal_name_full                       'Sov. Powder Metall. Met. Ceram.'
_journal_year                            1966
_journal_volume                          5
_journal_page_first                      494
_journal_page_last                       502
_journal_language                        English
loop_
 _publ_author_name
 _publ_author_address
'Eremenko V.N.'
;
National Academy of Sciences of Ukraine (NASU)
I.M. Frantsevich Institute for Problems of Materials Science
Kiev
Ukraine
;
'Buyanov Y.I.'
;
National Academy of Sciences of Ukraine (NASU)
I.M. Frantsevich Institute for Problems of Materials Science
Kiev
Ukraine
;
'Prima S.B.'
;
National Academy of Sciences of Ukraine (NASU)
I.M. Frantsevich Institute for Problems of Materials Science
Kiev
Ukraine
;

# Standardized crystallographic data

_cell_length_a                           3.107
_cell_length_b                           3.107
_cell_length_c                           5.919
_cell_angle_alpha                        90
_cell_angle_beta                         90
_cell_angle_gamma                        90
_cell_volume                             57.14
_cell_formula_units_Z                    2
_space_group_IT_number                   129
_space_group_name_H-M_alt                'P 4/n m m (origin choice 2)'
loop_
 _space_group_symop_id
 _space_group_symop_operation_xyz
 1 'x, y, z'
 2 '1/2-x, 1/2-y, z'
 3 '1/2-x, y, z'
 4 '-x, -y, -z'
 5 '-x, 1/2+y, -z'
 6 '1/2-y, 1/2-x, z'
 7 '1/2-y, x, z'
 8 '-y, -x, -z'
 9 '-y, 1/2+x, -z'
 10 '1/2+x, -y, -z'
 11 '1/2+x, 1/2+y, -z'
 12 'x, 1/2-y, z'
 13 '1/2+y, -x, -z'
 14 '1/2+y, 1/2+x, -z'
 15 'y, 1/2-x, z'
 16 'y, x, z'
loop_
 _atom_type_symbol
 Ti
 Cu
loop_
 _atom_site_label
 _atom_site_type_symbol
 _atom_site_symmetry_multiplicity
 _atom_site_Wyckoff_symbol
 _atom_site_fract_x
 _atom_site_fract_y
 _atom_site_fract_z
 _atom_site_occupancy
 Ti Ti 2 c 0.25 0.25 0.15 1
 Cu Cu 2 c 0.25 0.25 0.6 1


_exptl_crystal_colour                    ?
_exptl_crystal_density_meas              6.45
_exptl_crystal_density_diffrn            6.48
_cell_measurement_temperature            ?
_cell_measurement_radiation              'X-rays, Cu K'
_cell_measurement_reflns_used            ?
_diffrn_ambient_temperature              ?
_diffrn_measurement_device               film
_diffrn_measurement_device_type          ?
_diffrn_radiation_type                   'X-rays, Cu K'
_diffrn_reflns_number                    ?
_exptl_absorpt_coefficient_mu            ?
_exptl_absorpt_correction_type           ?
_computing_structure_solution            'starting values from the literature'
_refine_ls_number_parameters             ?
_refine_ls_number_reflns                 ?
_refine_ls_R_factor_gt                   ?
_refine_ls_wR_factor_gt                  ?
_pd_proc_ls_proof_R_factor               ?
_pd_proc_ls_proof_wR_factor              ?
_refine_ls_R_I_factor                    ?

# Published diffraction lines

loop_
 _refln_index_h
 _refln_index_k
 _refln_index_l
 _refln_d_spacing
 _refln_intensity_meas
 1 1 0 2.208 7
 0 1 2 2.148 7
 1 1 1 2.071 2
 0 1 3 1.669 3
 0 2 0 1.565 5
 0 0 4 1.478 3
 1 2 2 1.261 7
 1 1 4 1.229 5
 0 0 5 1.183 2
 1 2 3 1.14 2
 0 1 5 1.107 5
 0 2 4 1.074 5
 1 1 5 1.043 3
 1 3 0 0.99 5
 0 3 2 0.982 5
 0 1 6 0.941 5
 1 2 5 0.902 2
 2 2 4 0.885 5
 2 3 2 0.832 7
 1 3 4 0.822 7
 0 1 7 0.814 5
 1 2 6 0.806 7
 1 1 7 0.79 3

# End of data set 457547

