##############################################################################
#                                                                            #
# Au-Ti            # AuTi rt                                       #  528849 #
#                                                                            #
##############################################################################
#                                                                            #
#                           Pearson's Crystal Data                           #
#      Crystal Structure Database for Inorganic Compounds (on DVD)           #
#                              Release 2024/25                               #
#      Editors: Pierre Villars, Karin Cenzual, and Vitaliy Dubenskyy         #
#                                                                            #
#   Copyright (c) ASM International & Material Phases Data System (MPDS),    #
# Switzerland & National Institute for Materials Science (NIMS), Japan, 2024 #
#                   All rights reserved. Version 2024.07                     #
#                                                                            #
#   This copy of Pearson's Crystal Data is licensed to:                      #
#   Hunter College - City University of New York                             #
#                                                                            #
##############################################################################

data_528849
_audit_creation_date                     2024-09-21
_audit_creation_method
;
Pearson's Crystal Data browser
;
#_database_code_PCD                      528849
_database_code_PDF                       04-004-3968

# Entry summary

_chemical_formula_structural             'Au Ti'
_chemical_formula_sum                    'Au Ti'
_chemical_name_mineral                   ?
_chemical_compound_source                ?
_chemical_name_structure_type            CuTi,tP4,129
_chemical_formula_weight                 244.9

# Bibliographic data

_publ_section_title
'Einige Strukturdaten metallischer Phasen (7)'                                
_journal_coden_ASTM                      NATWAY
_journal_name_full                       Naturwissenschaften
_journal_year                            1962
_journal_volume                          49
_journal_page_first                      57
_journal_page_last                       ?
_journal_language                        German
loop_
 _publ_author_name
 _publ_author_address
'Schubert K.'
;
Max Planck Society (MPG)
Max Planck Institut (MPI) fur Metallforschung
Stuttgart
Germany
;
'Meissner H.G.'
;
Max Planck Society (MPG)
Max Planck Institut (MPI) fur Metallforschung
Stuttgart
Germany
;
'Potzschke M.'
;
Max Planck Society (MPG)
Max Planck Institut (MPI) fur Metallforschung
Stuttgart
Germany
;
'Rossteutscher W.'
;
Max Planck Society (MPG)
Max Planck Institut (MPI) fur Metallforschung
Stuttgart
Germany
;
'Stolz E.'
;
Max Planck Society (MPG)
Max Planck Institut (MPI) fur Metallforschung
Stuttgart
Germany
;

# Standardized crystallographic data

_cell_length_a                           3.335
_cell_length_b                           3.335
_cell_length_c                           6.028
_cell_angle_alpha                        90
_cell_angle_beta                         90
_cell_angle_gamma                        90
_cell_volume                             67.04
_cell_formula_units_Z                    2
_space_group_IT_number                   129
_space_group_name_H-M_alt                'P 4/n m m (origin choice 2)'
loop_
 _space_group_symop_id
 _space_group_symop_operation_xyz
 1 'x, y, z'
 2 '1/2-x, 1/2-y, z'
 3 '1/2-x, y, z'
 4 '-x, -y, -z'
 5 '-x, 1/2+y, -z'
 6 '1/2-y, 1/2-x, z'
 7 '1/2-y, x, z'
 8 '-y, -x, -z'
 9 '-y, 1/2+x, -z'
 10 '1/2+x, -y, -z'
 11 '1/2+x, 1/2+y, -z'
 12 'x, 1/2-y, z'
 13 '1/2+y, -x, -z'
 14 '1/2+y, 1/2+x, -z'
 15 'y, 1/2-x, z'
 16 'y, x, z'

# Atomic positions taken from type-defining entry

loop_
 _atom_type_symbol
 Ti
 Au
loop_
 _atom_site_label
 _atom_site_type_symbol
 _atom_site_symmetry_multiplicity
 _atom_site_Wyckoff_symbol
 _atom_site_fract_x
 _atom_site_fract_y
 _atom_site_fract_z
 _atom_site_occupancy
 Ti1 Ti 2 c 0.25 0.25 0.15 1
 Au1 Au 2 c 0.25 0.25 0.60 1


_exptl_crystal_colour                    ?
_exptl_crystal_density_meas              ?
_exptl_crystal_density_diffrn            12.13
_cell_measurement_temperature            ?
_cell_measurement_radiation              X-rays
_cell_measurement_reflns_used            ?
_diffrn_ambient_temperature              ?
_diffrn_measurement_device               film
_diffrn_measurement_device_type          ?
_diffrn_radiation_type                   ?
_diffrn_reflns_number                    ?
_exptl_absorpt_coefficient_mu            ?
_exptl_absorpt_correction_type           ?
_computing_structure_solution            ?
_refine_ls_number_parameters             ?
_refine_ls_number_reflns                 ?
_refine_ls_R_factor_gt                   ?
_refine_ls_wR_factor_gt                  ?

# End of data set 528849

